22
Lattice="2.0916707850574 -7.0472083328971 0.028390508775907 5.5682160322617 -0.021916978904202 -0.020499333310399 3.4937290920291 -3.3434227005861 9.1559813003798" Properties=species:S:1:pos:R:3:forces:R:3 subset=MC3D split=val energy=-117.44742230431984 stress="4.803817078675175e-05 -0.0004259695480455569 -0.00035308322659348895 -0.0004259695480455569 -3.232735644935513e-05 0.0007225337185715728 -0.00035308322659348895 0.0007225337185715728 0.0014379502144692864" pbc="T T T"
As       1.24281730       1.86501606       5.81948538      -0.04112764       0.13168785       0.17950850
As       0.15924101       1.83876957       3.30810542       0.04112764      -0.13168785      -0.17950850
C        1.68507625      -0.09022220       6.30826715       0.02924778      -0.06394734      -0.03014609
C       -0.28301794       3.79400783       2.81932364      -0.02924778       0.06394734       0.03014609
C        0.09724859       2.24736080       7.83725534      -0.06048983      -0.07093916      -0.03896338
C        1.30480971       1.45642483       1.29033545       0.06048983       0.07093916       0.03896338
O        2.14645465       3.12100335       6.47394396       0.04364642       0.04502200      -0.01428114
O       -0.74439634       0.58278228       2.65364683      -0.04364642      -0.04502200       0.01428114
O        1.80590255       1.67500876       4.03920395      -0.05451989      -0.08368296      -0.00200062
O       -0.40384425       2.02877687       5.08838684       0.05451989       0.08368296       0.00200062
F        2.90800114      -0.36966481       5.85713807      -0.01005954       0.00304470       0.01497594
F       -1.50594284       4.07345044       3.27045272       0.01005954      -0.00304470      -0.01497594
F        0.90267562       2.17176996       8.88418690      -0.01084399       0.00836708      -0.07879035
F        0.49938269       1.53201567       0.24340389       0.01084399      -0.00836708       0.07879035
F        1.64815250      -0.27489055       7.63452804       0.00497689       0.00426578      -0.00365873
F       -0.24609419       3.97867619       1.49306275      -0.00497689      -0.00426578       0.00365873
F       -0.47313603       3.43470502       7.74645147       0.05416186      -0.05485751      -0.01997834
F        1.87519434       0.26908061       1.38113932      -0.05416186       0.05485751       0.01997834
F        0.61421495       4.59085180       3.40741507      -0.00437241      -0.02537425      -0.01140906
F        0.78784335      -0.88706617       5.72017572       0.00437241       0.02537425       0.01140906
F       -0.82616030       1.28102677       7.89363772       0.00182671       0.01809625       0.03410460
F        2.22821861       2.42275886       1.23395307      -0.00182671      -0.01809625      -0.03410460
10
Lattice="-3.097322641762 5.6822326167289 2.7398764742014 3.097322641762 -5.6822326167289 2.7398764742014 3.097322641762 5.6822326167289 -2.7398764742014" Properties=species:S:1:pos:R:3:forces:R:3 subset=MC3D split=val energy=-44.653088044802644 stress="0.017804026991563603 6.732815000074965e-19 3.928869660055134e-18 6.732815000074965e-19 0.017543000894507752 1.0837855243325486e-18 3.928869660055134e-18 1.0837855243325486e-18 0.025673639648299905" pbc="T T T"
Na       2.08873221       1.64500862       0.00000000      -0.01855932      -0.06532682      -0.00000000
Na       5.18605485       4.03722399       0.00000000      -0.01855932       0.06532682       0.00000000
Na       4.10591307       1.64500862       2.73987647       0.01855932      -0.06532682      -0.00000000
Na       1.00859043       4.03722399       2.73987647       0.01855932       0.06532682      -0.00000000
Co       0.00000000       0.00000000       1.36993824       0.00000000       0.00000000       0.00000000
Co       0.00000000       0.00000000       4.10981471       0.00000000       0.00000000       0.00000000
S        1.82019084       4.42996325       0.00000000       0.74706372       0.66822638      -0.00000000
S        4.91751349       1.25226936       0.00000000       0.74706372      -0.66822638       0.00000000
S        4.37445444       4.42996325       2.73987647      -0.74706372       0.66822638       0.00000000
S        1.27713180       1.25226936       2.73987647      -0.74706372      -0.66822638       0.00000000
44
Lattice="5.4337666095494 0.0 0.0065783887712463 0.0 8.5316129609089 0.0 -5.4160381966268 0.0 12.906780657885" Properties=species:S:1:pos:R:3:forces:R:3 subset=MC3D split=val energy=-306.1698812983086 stress="-0.0015761308262762159 -0.0 3.6950451040703125e-06 -0.0 -0.001593279125964306 -0.0 3.6950451040703125e-06 -0.0 -0.0015874417790212184" pbc="T T T"
Sr       3.89826717       1.49036254       3.50117346      -0.00079839      -0.00003219       0.00071826
Sr       1.19024807       2.77544394       9.95456379      -0.00079839       0.00003219       0.00071826
Sr      -1.17251965       5.75616902       2.95879526       0.00079839      -0.00003219      -0.00071826
Sr      -3.88053875       7.04125042       9.41218559       0.00079839       0.00003219      -0.00071826
Cd       1.72505158       7.32168112       5.23779634       0.00069342       0.00003752       0.00036898
Cd      -0.98296752       5.47573832      11.69118667       0.00069342      -0.00003752       0.00036898
Cd       1.00069594       3.05587464       1.22217238      -0.00069342       0.00003752      -0.00036898
Cd      -1.70732316       1.20993184       7.67556270      -0.00069342      -0.00003752      -0.00036898
P        1.08973612       1.83658284       6.13144794       0.00108350      -0.00078347       0.00126594
P       -1.61828298       2.42922364      12.58483827       0.00108350       0.00078347       0.00126594
P        1.63601139       6.10238932       0.32852078      -0.00108350      -0.00078347      -0.00126594
P       -1.07200770       6.69503013       6.78191111      -0.00108350       0.00078347      -0.00126594
P        1.31477838       4.01340694       4.22344480       0.00046816       0.00062763      -0.00104592
P       -1.39324072       0.25239954      10.67683513       0.00046816      -0.00062763      -0.00104592
P        1.41096913       8.27921342       2.23652391      -0.00046816       0.00062763       0.00104592
P       -1.29704997       4.51820602       8.68991424      -0.00046816      -0.00062763       0.00104592
O        4.24174534       2.50048385       1.14072092      -0.00154351       0.00021380      -0.00246322
O        1.53372624       1.76532263       7.59411125      -0.00154351      -0.00021380      -0.00246322
O       -1.51599783       6.76629033       5.31924780       0.00154351       0.00021380       0.00246322
O       -4.22401692       6.03112912      11.77263812       0.00154351      -0.00021380       0.00246322
O        2.70385328       3.81016748       3.62236061      -0.00198129       0.00029458       0.00151767
O       -0.00416581       0.45563900      10.07575094      -0.00198129      -0.00029458       0.00151767
O        0.02189423       8.07597396       2.83760811       0.00198129       0.00029458      -0.00151767
O       -2.68612487       4.72144548       9.29099844       0.00198129      -0.00029458      -0.00151767
O        2.03768394       1.00350791       5.23341036      -0.00162869       0.00010314       0.00104810
O       -0.67033516       3.26229858      11.68680069      -0.00162869      -0.00010314       0.00104810
O        0.68806357       5.26931439       1.22655835       0.00162869       0.00010314      -0.00104810
O       -2.01995553       7.52810506       7.67994868       0.00162869      -0.00010314      -0.00104810
O        1.31304727       3.38015099       5.71803598       0.00058575      -0.00229210      -0.00197286
O       -1.39497183       0.88565549      12.17142631       0.00058575       0.00229210      -0.00197286
O        1.41270024       7.64595747       0.74193274      -0.00058575      -0.00229210       0.00197286
O       -1.29531885       5.15146197       7.19532306      -0.00058575       0.00229210       0.00197286
O        1.81293031       1.20797316       2.04464252      -0.00029904      -0.00348066       0.00251805
O       -0.89508879       3.05783332       8.49803285      -0.00029904       0.00348066       0.00251805
O        0.91281720       5.47377964       4.41532620       0.00029904      -0.00348066      -0.00251805
O       -1.79520190       7.32363980      10.86871653       0.00029904       0.00348066      -0.00251805
O       -0.38339040       1.46726323       5.89031942       0.00442258       0.00117590      -0.00118866
O       -3.09140950       2.79854325      12.34370974       0.00442258      -0.00117590      -0.00118866
O        3.10913791       5.73306971       0.56964930      -0.00442258       0.00117590       0.00118866
O        0.40111881       7.06434973       7.02303963      -0.00442258      -0.00117590       0.00118866
O        0.20473372       3.31327485       3.41585210       0.00293792      -0.00015464       0.00225691
O       -2.50328537       0.95253163       9.86924243       0.00293792       0.00015464       0.00225691
O        2.52101379       7.57908133       3.04411662      -0.00293792      -0.00015464      -0.00225691
O       -0.18700531       5.21833812       9.49750695      -0.00293792       0.00015464      -0.00225691
12
Lattice="4.4209951106469 2.6461863693394 -0.28045926520374 -4.4209951106469 2.6461863693394 0.28045926520374 -0.96175011522438 5.9371882582857e-20 5.9626635093853" Properties=species:S:1:pos:R:3:forces:R:3 subset=MC3D split=val energy=-76.32926490981845 stress="-2.285609246933465e-05 7.033324633090655e-22 -0.00010155506655006982 7.033324633090655e-22 -4.361771987789776e-05 -1.8348574119240654e-20 -0.00010155506655006982 -1.8348574119240654e-20 -0.00018169465522695734" pbc="T T T"
Na       2.19581482       0.00000000       4.32852932      -0.00082784      -0.00000000      -0.00145078
Na       5.68442528       0.00000000       1.07321566       0.00082784       0.00000000       0.00145078
Na      -0.48087506       0.00000000       2.98133175       0.00000000       0.00000000       0.00000000
Na       0.00000000       0.00000000       0.00000000       0.00000000       0.00000000       0.00000000
C        5.14895009       0.00000000       4.09582374       0.00139902       0.00000000       0.00002769
C        2.73129002       0.00000000       1.30592124      -0.00139902      -0.00000000      -0.00002769
O        4.55785871       4.17434782       4.37268869       0.00834865       0.01491081      -0.00406098
O        4.55785871       1.11802491       4.37268869       0.00834865      -0.01491081      -0.00406098
O        3.32238140       4.17434782       1.02905629      -0.00834865       0.01491081       0.00406098
O        3.32238140       1.11802491       1.02905629      -0.00834865      -0.01491081       0.00406098
O        6.32312043       0.00000000       3.55455837      -0.01302278      -0.00000000       0.00828111
O        1.55711968       0.00000000       1.84718661       0.01302278       0.00000000      -0.00828111
10
Lattice="5.5863685881823 3.1894606524591 0.17447861313737 -5.5863685881823 3.1894606524591 -0.17447861313737 -0.35588187544446 0.0 6.1626503951634" Properties=species:S:1:pos:R:3:forces:R:3 subset=MC3D-rattled split=val energy=-45.800629277879125 stress="-0.03358543784116832 0.03510401344336529 0.0227320730379132 0.03510401344336529 -0.034274377761248254 -0.024775561295418323 0.0227320730379132 -0.024775561295418323 -0.02214625683905774" pbc="T T T"
Re      -0.25100465       1.80960177      -0.08488215       8.06855278      -4.28460728       2.82520223
Re      -0.01233177       4.97462364       0.01202569      -1.43464990      -0.01166260       2.08903789
S        0.94387170       3.52894220       5.30879347      -0.13790983      -3.08287542      -0.14524784
S        4.06418589      -0.11985050       0.89110640      -3.55585103       4.75243167       3.20197305
Cl       3.85208451       4.64260516       4.59300994      -2.03412054      -0.98796531      -4.79884000
Cl       3.85857592       1.57509331       4.44377100       0.07381045       0.54928049      -0.00508993
Cl       1.12123115       5.02375369       2.27473107      -0.82425758      -0.10179357      -1.93712328
Cl       1.23887676       1.76625743       1.97956264      -1.32612603      -0.46542963      -1.14507515
Cl       3.70987555       2.86038595       1.10498385       0.24742322       1.41069603       0.32750021
Cl       1.15744016      -0.12201334       5.19741367       0.92312847       2.22192564      -0.41233719
28
Lattice="7.962130450998 0.0 0.0 0.0 6.153376559104 0.0 0.0 0.0 10.792617062326" Properties=species:S:1:pos:R:3:forces:R:3 subset=MC3D-rattled split=val energy=-115.99923323619441 stress="-0.026838408010999907 0.0572408028373201 -0.00016307301801602925 0.0572408028373201 -0.16275366779218514 0.007305632466055315 -0.00016307301801602925 0.007305632466055315 -0.04885623243951503" pbc="T T T"
Rb       1.32499977       1.34281361       9.80313543      -0.46179160       0.82841175       1.02251918
Rb       5.60885161       0.88278915       6.43833404      -0.15398514       2.17719804      -0.31213137
Rb       6.76534351       4.49035790       0.53917571      -0.05059764      -0.25874706       1.98031864
Rb       2.47474516       4.27198934       4.69242112       0.39511436       0.37051053      -0.99944496
Rb       3.67221292       1.78490174       1.78896133       1.43596155      -0.95115476       1.53379886
Rb       7.92401916       1.95291120       3.46689797       0.13557413      -0.61579023      -0.50025222
Rb       3.85742865       4.68115594       9.28280699       2.02548587      -0.43385402      -3.14956124
Rb      -0.00099004       4.85327363       8.14554249       1.10007032      -2.44036916      -3.56267267
Se       5.82998704       1.36517767       9.81267534       1.35653435       0.16514337       6.82700793
Se       1.86021707       1.09721825       6.60627449     -30.26408581      72.46857636     -34.86062159
Se       2.31550228       4.66070340       0.58330342       0.76052354      -7.30852741       6.37637511
Se       6.00466234       4.62181616       4.62934167       7.14338789       7.38321159      -8.63050601
O        4.10821130       1.37938134       9.94229847       1.55035242      -0.12822953      -1.69591157
O        0.20798610       1.45754082       6.07880670      -0.13089372      -3.58655907       2.27237887
O        4.12290806       4.57666976       1.08661109      -1.89837007      -0.01089583      -1.67881604
O        8.03486568       5.02527997       4.43355436      -4.21487412      -1.30408398       0.93040068
O        6.47137081       1.35980918       0.78209976      -1.54459990       0.05121737      -4.20422568
O        2.43220654       1.59577635       4.60065846       0.47010203      -2.25920586       2.80177240
O        1.15306397       4.66453416      10.20104568       0.38567366       0.44948799      -2.17405658
O        5.58202807       4.64405215       6.10359716      -2.12632814      -0.59458478       6.59478800
O        6.52821733      -0.09198379       9.25153047      -2.97266341       2.92249147       0.14423583
O        1.88396641       2.76158475       6.64673511       3.25374274       2.00872248       4.71619158
O        1.57948830       2.93689954       1.44079476       0.53649322       3.20942867      -2.33825267
O        5.50160213       6.03257778       3.49078604       0.38494783      -2.73676025       3.05926765
O        1.85191124       5.70787996       1.62309284      -1.72753222       4.14990902       2.59247100
O        5.60731663       3.27795874       3.98175405      -1.55653119      -4.49357567      -1.93061627
O        6.53829007       2.74669122       9.20453198      -0.85292400      -0.71451680      -1.05873386
O        2.26707248       0.04423819       6.98015887      27.02121304     -68.34745421      26.24427699
36
Lattice="6.7707321857226 0.0 0.0 0.0 13.262786168932 0.0 0.0 0.0 6.8582354464815" Properties=species:S:1:pos:R:3:forces:R:3 subset=MC3D split=val energy=-281.8179171311931 stress="-0.001989380882451303 -0.0 -0.0 -0.0 -0.001816824631310859 -0.0 -0.0 -0.0 -0.0019086082986320464" pbc="T T T"
Hf       1.00517286       4.98782091       5.71318595      -0.00187938       0.00045753       0.00266752
Hf       1.00517286       1.64357218       5.71318595      -0.00187938      -0.00045753       0.00266752
Hf       4.39053895       4.98782091       4.57416722      -0.00187938       0.00045753      -0.00266752
Hf       4.39053895       1.64357218       4.57416722      -0.00187938      -0.00045753      -0.00266752
Hf       5.76555933      11.61921399       1.14504949       0.00187938       0.00045753      -0.00266752
Hf       5.76555933       8.27496526       1.14504949       0.00187938      -0.00045753      -0.00266752
Hf       2.38019324      11.61921399       2.28406823       0.00187938       0.00045753       0.00266752
Hf       2.38019324       8.27496526       2.28406823       0.00187938      -0.00045753       0.00266752
Nb       3.22882779       5.42729838       1.21781930       0.00182704       0.00185854       0.00054619
Nb       3.22882779       1.20409471       1.21781930       0.00182704      -0.00185854       0.00054619
Nb       6.61419388       5.42729838       2.21129842       0.00182704       0.00185854      -0.00054619
Nb       6.61419388       1.20409471       2.21129842       0.00182704      -0.00185854      -0.00054619
Nb       3.54190440      12.05869146       5.64041615      -0.00182704       0.00185854      -0.00054619
Nb       3.54190440       7.83548779       5.64041615      -0.00182704      -0.00185854      -0.00054619
Nb       0.15653831      12.05869146       4.64693702      -0.00182704       0.00185854       0.00054619
Nb       0.15653831       7.83548779       4.64693702      -0.00182704      -0.00185854       0.00054619
Nb       2.18224679       3.31569654       3.45980476       0.00059333       0.00000000       0.00246963
Nb       5.56761288       3.31569654       6.82754841       0.00059333       0.00000000      -0.00246963
Nb       4.58848540       9.94708963       3.39843068      -0.00059333       0.00000000      -0.00246963
Nb       1.20311930       9.94708963       0.03068704      -0.00059333       0.00000000       0.00246963
Ge       2.05046502       6.07579981       3.61513876      -0.00058801      -0.00121842      -0.00023694
Ge       2.05046502       0.55559328       3.61513876      -0.00058801       0.00121842      -0.00023694
Ge       5.43583112       6.07579981       6.67221441      -0.00058801      -0.00121842       0.00023694
Ge       5.43583112       0.55559328       6.67221441      -0.00058801       0.00121842       0.00023694
Ge       4.72026716      12.70719289       3.24309669       0.00058801      -0.00121842       0.00023694
Ge       4.72026716       7.18698636       3.24309669       0.00058801       0.00121842       0.00023694
Ge       1.33490107      12.70719289       0.18602103       0.00058801      -0.00121842      -0.00023694
Ge       1.33490107       7.18698636       0.18602103       0.00058801       0.00121842      -0.00023694
Ge       3.05667836       3.31569654       6.18071057      -0.00149051       0.00000000       0.00002162
Ge       6.44204445       3.31569654       4.10664260      -0.00149051       0.00000000      -0.00002162
Ge       3.71405383       9.94708963       0.67752487       0.00149051       0.00000000      -0.00002162
Ge       0.32868774       9.94708963       2.75159285       0.00149051       0.00000000       0.00002162
Ge       1.20294413       3.31569654       1.08255327      -0.00040143       0.00000000       0.00072338
Ge       4.58831022       3.31569654       2.34656445      -0.00040143       0.00000000      -0.00072338
Ge       5.56778806       9.94708963       5.77568218       0.00040143       0.00000000      -0.00072338
Ge       2.18242196       9.94708963       4.51167099       0.00040143       0.00000000       0.00072338
10
Lattice="3.2469675157519e-19 3.9175016996444 3.9175016996444 3.9175016996444 3.2491101621611e-19 3.9175016996444 3.9175016996444 3.9175016996444 5.3787663673415e-19" Properties=species:S:1:pos:R:3:forces:R:3 subset=MC3D-rattled split=val energy=-70.34164257125849 stress="-0.028851906733092684 0.00974037091392647 0.019818768862310585 0.00974037091392647 -0.049270859354449394 -0.018619906885257956 0.019818768862310585 -0.018619906885257956 -0.0580384734053234" pbc="T T T"
Sr       2.09807855       2.31418522       6.13820739      -2.12961016      -2.10391327      -2.15326602
Sr       1.71756909       6.25935863       5.97274944       2.61211302      -2.53822454      -0.59313709
Fe       3.95056112       0.19100602       0.05947440      -0.68995201      -0.05676660      -2.37386840
Os      -0.08133846       0.03164409      -0.30912664       0.22180700       3.01599379       7.53708119
O        5.91777412      -0.24228260       0.23569969      -0.80876114       1.48158987      -1.95425606
O        4.02219954       2.14545851      -0.10453683       0.14089861      -3.42695205       0.66567813
O        0.18963631       0.15372786       5.78119402      -1.19009461       0.51057093      -3.12548556
O        3.74768351       0.08174974       5.89035200       1.01704829       0.17402745       0.38296665
O        3.86266385       5.77140677      -0.09137188      -0.42930417       2.31195060       0.42195113
O        1.86333733       0.02918929      -0.15359695       1.25585518       0.63172382       1.19233602
12
Lattice="6.7310031445792 0.0 -0.11993766817576 0.0 8.4138437712236 0.0 -1.6755185241764 0.0 6.6415261089703" Properties=species:S:1:pos:R:3:forces:R:3 subset=MC3D split=val energy=-42.40188502120145 stress="-0.0004703399148438323 -0.0 -4.5025416351642104e-05 -0.0 -0.000598348528091512 -0.0 -4.5025416351642104e-05 -0.0 -0.0004856766146569149" pbc="T T T"
Pt       4.14403643       3.14564444       3.25385398      -0.00054220       0.00193973      -0.00071414
Pt       3.30627717       1.06127745       6.57461703      -0.00054220      -0.00193973      -0.00071414
Pt       1.74920745       7.35256632      -0.05302859       0.00054220       0.00193973       0.00071414
Pt       0.91144819       5.26819933       3.26773446       0.00054220      -0.00193973       0.00071414
I        6.08329977       2.86141671       1.52005459      -0.00409950      -0.00273466       0.00151268
I        5.24554051       1.34550518       4.84081764      -0.00409950       0.00273466       0.00151268
I       -0.19005589       7.06833860       1.68077080       0.00409950      -0.00273466      -0.00151268
I       -1.02781515       5.55242706       5.00153385       0.00409950       0.00273466      -0.00151268
I        2.89540043       0.77672596       1.46381727       0.00140884      -0.00410669      -0.00571015
I        2.05764117       3.43019593       4.78458033       0.00140884       0.00410669      -0.00571015
I        2.99784345       4.98364784       1.73700812      -0.00140884      -0.00410669       0.00571015
I        2.16008419       7.63711781       5.05777117      -0.00140884       0.00410669       0.00571015
16
Lattice="-3.8288781054642 3.8288781054642 6.7367972763539 3.8288781054642 -3.8288781054642 6.7367972763539 3.8288781054642 3.8288781054642 -6.7367972763539" Properties=species:S:1:pos:R:3:forces:R:3 subset=MC3D split=val energy=-100.69950869720924 stress="-0.0015041050898937703 -1.061940055430576e-18 -6.846057292609007e-19 -1.061940055430576e-18 -0.0015041050898937699 -6.068347554664996e-19 -6.846057292609007e-19 -6.068347554664996e-19 -0.0011859097877852938" pbc="T T T"
Y        2.61909981       6.44797791       4.85497591       0.00086745       0.00086745       0.00235689
Y        6.44797791       2.61909981       1.88182137       0.00086745       0.00086745      -0.00235689
Y        6.44797791       5.03865640       4.85497591       0.00086745      -0.00086745       0.00235689
Y        2.61909981       1.20977830       1.88182137       0.00086745      -0.00086745      -0.00235689
Y        1.20977830       2.61909981       4.85497591      -0.00086745       0.00086745       0.00235689
Y        5.03865640       6.44797791       1.88182137      -0.00086745       0.00086745      -0.00235689
Y        5.03865640       1.20977830       4.85497591      -0.00086745      -0.00086745       0.00235689
Y        1.20977830       5.03865640       1.88182137      -0.00086745      -0.00086745      -0.00235689
Y        0.00000000       0.00000000       0.00000000       0.00000000       0.00000000      -0.00000000
Y        3.82887811       3.82887811       0.00000000       0.00000000       0.00000000      -0.00000000
Sb       3.82887811       3.82887811       3.36839864       0.00000000       0.00000000       0.00000000
Sb       0.00000000       0.00000000       3.36839864      -0.00000000      -0.00000000       0.00000000
Pt       2.78258185       6.61145996       0.00000000       0.00227464       0.00227464      -0.00000000
Pt       6.61145996       4.87517436       0.00000000       0.00227464      -0.00227464      -0.00000000
Pt       1.04629625       2.78258185       0.00000000      -0.00227464       0.00227464      -0.00000000
Pt       4.87517436       1.04629625       0.00000000      -0.00227464      -0.00227464       0.00000000
184
Lattice="7.6236 0.0 0.0 0.0 9.2921 0.0 0.0 0.0 23.018" Properties=species:S:1:pos:R:3:forces:R:3 subset=SHIFTML-molcrys split=val energy=-997.4971906978026 stress="0.0004520071785140537 -0.0021449663227254027 -0.0006595132510194487 -0.0021449663227254027 0.006762462236472602 0.002371680672413753 -0.0006595132510194487 0.002371680672413753 0.010830928256578245" pbc="T T T"
Cl       6.76678000       3.29490000      21.53180000       0.09229671       0.07303291       0.13504566
Cl       4.57915000       6.07974000       9.90877000      -0.21920211      -0.23505641       0.15503120
Cl       0.80757000       7.70400000      12.99720000       0.13193264       0.08782590      -0.26453738
Cl       3.35567000       1.29852000       1.51937000      -0.25015780      -0.08981270      -0.18134183
Cl       0.50847700       6.03355000       1.50842000      -0.07629014      -0.00726470      -0.25455487
Cl       3.19214000       3.39738000      13.00360000      -0.05690257      -0.23741731      -0.38660710
Cl       6.89025000       1.53638000       9.92795000       0.26369408      -0.35234617       0.26632291
Cl       4.72941000       7.77491000      21.62440000      -0.18103089       0.11666403      -0.06228139
N        6.11311000       0.74882000       0.03530940       0.01818761      -1.11988048       0.30066695
N        5.67675000       8.33286000      11.65330000      -0.38405743       2.06159204      -0.39700552
N        1.68518000       5.37580000      11.04200000       0.24309411       0.10691468      -2.02801467
N        1.91315000       3.54678000      22.90710000       0.57405666      -0.37061745      -1.12419890
N        1.68951000       8.40543000      22.89050000      -2.28728008       1.45023533       0.51291777
N        2.10434000       0.81483200      11.44720000      -0.28332633      -2.46779624      -2.33822660
N        5.97100000       3.79896000      11.67790000      -0.33406834      -0.90102235       0.67924390
N        5.28507000       5.37126000       0.32763200       1.40870661      -1.54673596       0.69668436
H        6.42714000       1.64200000      22.64380000      -0.21671179       0.69851711      -0.97060012
H        5.33507000       7.45005000      11.13710000      -0.88568963       0.26448685       0.27260399
H        1.44244000       6.17119000      11.71880000       0.00015356      -0.21838798       0.07188916
H        2.30449000       2.77597000       0.46569200       0.72509304      -1.03133708      -0.06432826
H        0.95499800       7.73267000       0.21587900       0.34169206      -0.35787783       0.36612747
H        2.72099000       1.49161000      11.79840000       1.22870138       2.59303420       1.19908888
H        6.35356000       2.89810000      11.20670000       0.00971320       0.40839452       0.24255068
H        4.94002000       6.14800000      22.69840000      -0.30976241      -0.16962428       0.02160011
H        5.17877000       0.83463800       0.50294600      -0.40938624       0.45178703       0.49469563
H        6.64910000       8.13798000      11.98120000       0.50206703      -0.00767195       0.77442813
H        2.59839000       5.50753000      10.48990000      -0.11306521       0.89281752       0.34918330
H        0.96896200       3.31028000      22.47950000       0.04934537       0.03376474      -0.56412756
H        2.53739000       7.95414000      22.64210000       2.03304627      -0.99045946      -0.80261715
H        1.19921000       1.16603000      10.96930000       0.37200497      -0.23461713       0.27793970
H        4.98483000       3.60128000      12.11020000       0.57531928       0.14954958       0.13096822
H        6.24936000       5.70209000       0.74548900      -0.75389446      -0.05254289       0.22315715
H        5.89136000       9.22250790      22.35050000       0.56417015       0.43641122       0.53111794
H        5.77240000       9.17495000      10.96970000       0.06165936      -0.99248561       0.46572646
H        1.91469000       4.46166000      11.45450000      -0.37039436      -0.44878238       1.22375533
H        1.70564000       4.25087000       0.57886000      -0.22080860       1.85071230       0.69450055
H        1.92346000       9.10327000       0.64372300       0.09765660       0.02208682      -0.41447817
H        1.92389000       0.10291200      12.17390000      -0.73971251      -0.62354694       0.45893246
H        5.77688000       4.47155000      10.91310000       0.20215460       0.75136206      -0.06263609
H        5.65971000       4.46048000      22.83140000      -0.90648379       1.12789154       0.07547465
O        7.11851000       0.41136800       0.98246200      -0.30696913      -0.23362607      -0.11345669