8
Lattice="8.460000038146973 0.0 0.0 0.0 8.460000038146973 0.0 0.0 0.0 8.460000038146973" Properties=species:S:1:pos:R:3:dipoles:R:3:forces:R:3 energy=1.5323538047012266 pbc="T T T"
Na       6.40999985       1.92000008       7.67000008       0.87830178       0.44712111       0.83810067       0.57283619       1.14204645       1.33681563
Na       4.18000031       4.96000004       8.02999973       0.73324216       0.97949808      -0.26166893      -0.03507047       0.24607122       1.13457851
Na       4.30999994       7.90000010       3.68999982      -0.31266377      -0.51245950      -0.18034898      -0.01967271       0.0084999       -0.36205072
Na       8.23999977       2.98000002       3.89999986      -0.12426795       0.51958488       0.66561609      -0.02508925      -0.11864547      -0.19522136
Cl       4.57999992       0.88000000       7.42999983      -0.41149415       0.34275195       0.52485166      -0.51002499      -1.5905667       -1.21172538
Cl       7.16000032       5.13000011       1.26999998       0.93048734      -0.30992820       0.32975380      -0.00883947      -0.11365123      -0.21224626
Cl       8.27999973       8.02999973       5.61999989       0.17311888      -0.83212290      -0.09616741       0.34479173       0.24309117       0.15871536
Cl       4.19000006       3.82999992       5.23000002       0.31179980       0.71290202      -0.87487990      -0.31893102       0.18315466      -0.64886577
8
Lattice="8.0 0.0 0.0 0.0 8.0 0.0 0.0 0.0 8.0" Properties=species:S:1:pos:R:3:dipoles:R:3:forces:R:3 energy=2.005822828064277 pbc="T T T"
Na       7.50000000       1.50999999       0.05000000      -0.85723323       0.56525094      -0.66685193      -1.46823136       1.56818289       1.1018063
Na       6.37000036       6.44000006       5.28999996       0.83409694      -0.89774275       0.74302336       1.85867637       1.43423158      -0.04219309
Na       1.15999997       2.56000018       3.88999987      -0.44331833       0.29179266      -0.94754402       0.06170197      -0.30920673      -0.13200583
Na       5.46000004       7.88000011       6.57999992       0.70186080       0.98230338      -0.06109690      -0.98041385      -1.39992847       1.33130465
Cl       3.61999989       5.91000032       3.55999994      -0.93308686      -0.88801660      -0.49452546      -0.49279598      -0.71824789      -0.67401955
Cl       6.17000008       4.02999973       2.26999998       0.10955457       0.48917852       0.99768683      -0.00349212       0.44927656      -0.29142061
Cl       4.38000011       0.11000000       0.82000005      -0.30364667       0.26808690      -0.68324974      -0.30267466      -0.5973787       -0.8010298
Cl       0.71000004       2.49000001       0.93999994      -0.56214647       0.24127451       0.28667338       1.32722962      -0.42692926      -0.49244207
8
Lattice="10.0 0.0 0.0 0.0 10.0 0.0 0.0 0.0 10.0" Properties=species:S:1:pos:R:3:dipoles:R:3:forces:R:3 energy=2.261072327985546 pbc="T T T"
Na       9.36999989       1.88999999       0.06000000       0.14120932       0.48341832       0.45537058      -2.12882348      -0.97937658      -0.75803323
Na       7.96000004       8.05000019       6.61999989      -0.45102672      -0.03732401      -0.74260234       0.54009361      -0.42119106      -0.60862247
Na       1.44999993       3.19999981       4.86999989       0.25118867      -0.29834069      -0.69578594       0.00429438       0.08823258      -0.29035364
Na       6.83000040       9.85000038       8.23000050      -0.44058746       0.57551755      -0.88325601      -0.0410207        0.05467702       0.84370787
Cl       4.53000021       7.37999964       4.46000004       0.96973183      -0.29250836       0.83184721      -0.02518924      -0.13902849      -0.24158766
Cl       7.71000004       5.03999996       2.84000015       0.24131227      -0.80615721      -0.57806687      -0.26878176       0.42816378       0.41324843
Cl       5.46999979       0.14000000       1.02999997       0.02369047      -0.50338626       0.70727541      -0.37825837       0.20451106      -0.10303815
Cl       0.88000000       3.10999990       1.18000007      -0.74464657      -0.57116991      -0.90829042       2.29768557       0.7640117        0.74467885